
                                 *****************
                                 * O   R   C   A *
                                 *****************

                                            #,                                       
                                            ###                                      
                                            ####                                     
                                            #####                                    
                                            ######                                   
                                           ########,                                 
                                     ,,################,,,,,                         
                               ,,#################################,,                 
                          ,,##########################################,,             
                       ,#########################################, ''#####,          
                    ,#############################################,,   '####,        
                  ,##################################################,,,,####,       
                ,###########''''           ''''###############################       
              ,#####''   ,,,,##########,,,,          '''####'''          '####       
            ,##' ,,,,###########################,,,                        '##       
           ' ,,###''''                  '''############,,,                           
         ,,##''                                '''############,,,,        ,,,,,,###''
      ,#''                                            '''#######################'''  
     '                                                          ''''####''''         
             ,#######,   #######,   ,#######,      ##                                
            ,#'     '#,  ##    ##  ,#'     '#,    #''#        ######   ,####,        
            ##       ##  ##   ,#'  ##            #'  '#       #        #'  '#        
            ##       ##  #######   ##           ,######,      #####,   #    #        
            '#,     ,#'  ##    ##  '#,     ,#' ,#      #,         ##   #,  ,#        
             '#######'   ##     ##  '#######'  #'      '#     #####' # '####'        



                  #######################################################
                  #                        -***-                        #
                  #          Department of theory and spectroscopy      #
                  #    Directorship and core code : Frank Neese         #
                  #        Max Planck Institute fuer Kohlenforschung    #
                  #                Kaiser Wilhelm Platz 1               #
                  #                 D-45470 Muelheim/Ruhr               #
                  #                      Germany                        #
                  #                                                     #
                  #                  All rights reserved                #
                  #                        -***-                        #
                  #######################################################


                         Program Version 5.0.4 -  RELEASE  -


 With contributions from (in alphabetic order):
   Daniel Aravena         : Magnetic Suceptibility
   Michael Atanasov       : Ab Initio Ligand Field Theory (pilot matlab implementation)
   Alexander A. Auer      : GIAO ZORA, VPT2 properties, NMR spectrum
   Ute Becker             : Parallelization
   Giovanni Bistoni       : ED, misc. LED, open-shell LED, HFLD
   Martin Brehm           : Molecular dynamics
   Dmytro Bykov           : SCF Hessian
   Vijay G. Chilkuri      : MRCI spin determinant printing, contributions to CSF-ICE
   Dipayan Datta          : RHF DLPNO-CCSD density
   Achintya Kumar Dutta   : EOM-CC, STEOM-CC
   Dmitry Ganyushin       : Spin-Orbit,Spin-Spin,Magnetic field MRCI
   Miquel Garcia          : C-PCM and meta-GGA Hessian, CC/C-PCM, Gaussian charge scheme
   Yang Guo               : DLPNO-NEVPT2, F12-NEVPT2, CIM, IAO-localization
   Andreas Hansen         : Spin unrestricted coupled pair/coupled cluster methods
   Benjamin Helmich-Paris : MC-RPA, TRAH-SCF, COSX integrals
   Lee Huntington         : MR-EOM, pCC
   Robert Izsak           : Overlap fitted RIJCOSX, COSX-SCS-MP3, EOM
   Marcus Kettner         : VPT2
   Christian Kollmar      : KDIIS, OOCD, Brueckner-CCSD(T), CCSD density, CASPT2, CASPT2-K
   Simone Kossmann        : Meta GGA functionals, TD-DFT gradient, OOMP2, MP2 Hessian
   Martin Krupicka        : Initial AUTO-CI
   Lucas Lang             : DCDCAS
   Marvin Lechner         : AUTO-CI (C++ implementation), FIC-MRCC
   Dagmar Lenk            : GEPOL surface, SMD
   Dimitrios Liakos       : Extrapolation schemes; Compound Job, initial MDCI parallelization
   Dimitrios Manganas     : Further ROCIS development; embedding schemes
   Dimitrios Pantazis     : SARC Basis sets
   Anastasios Papadopoulos: AUTO-CI, single reference methods and gradients
   Taras Petrenko         : DFT Hessian,TD-DFT gradient, ASA, ECA, R-Raman, ABS, FL, XAS/XES, NRVS
   Peter Pinski           : DLPNO-MP2, DLPNO-MP2 Gradient
   Christoph Reimann      : Effective Core Potentials
   Marius Retegan         : Local ZFS, SOC
   Christoph Riplinger    : Optimizer, TS searches, QM/MM, DLPNO-CCSD(T), (RO)-DLPNO pert. Triples
   Tobias Risthaus        : Range-separated hybrids, TD-DFT gradient, RPA, STAB
   Michael Roemelt        : Original ROCIS implementation
   Masaaki Saitow         : Open-shell DLPNO-CCSD energy and density
   Barbara Sandhoefer     : DKH picture change effects
   Avijit Sen             : IP-ROCIS
   Kantharuban Sivalingam : CASSCF convergence, NEVPT2, FIC-MRCI
   Bernardo de Souza      : ESD, SOC TD-DFT
   Georgi Stoychev        : AutoAux, RI-MP2 NMR, DLPNO-MP2 response
   Willem Van den Heuvel  : Paramagnetic NMR
   Boris Wezisla          : Elementary symmetry handling
   Frank Wennmohs         : Technical directorship


 We gratefully acknowledge several colleagues who have allowed us to
 interface, adapt or use parts of their codes:
   Stefan Grimme, W. Hujo, H. Kruse, P. Pracht,  : VdW corrections, initial TS optimization,
                  C. Bannwarth, S. Ehlert          DFT functionals, gCP, sTDA/sTD-DF
   Ed Valeev, F. Pavosevic, A. Kumar             : LibInt (2-el integral package), F12 methods
   Garnet Chan, S. Sharma, J. Yang, R. Olivares  : DMRG
   Ulf Ekstrom                                   : XCFun DFT Library
   Mihaly Kallay                                 : mrcc  (arbitrary order and MRCC methods)
   Jiri Pittner, Ondrej Demel                    : Mk-CCSD
   Frank Weinhold                                : gennbo (NPA and NBO analysis)
   Christopher J. Cramer and Donald G. Truhlar   : smd solvation model
   Lars Goerigk                                  : TD-DFT with DH, B97 family of functionals
   V. Asgeirsson, H. Jonsson                     : NEB implementation
   FAccTs GmbH                                   : IRC, NEB, NEB-TS, DLPNO-Multilevel, CI-OPT
                                                   MM, QMMM, 2- and 3-layer-ONIOM, Crystal-QMMM,
                                                   LR-CPCM, SF, NACMEs, symmetry and pop. for TD-DFT,
                                                   nearIR, NL-DFT gradient (VV10), updates on ESD,
                                                   ML-optimized integration grids
   S Lehtola, MJT Oliveira, MAL Marques          : LibXC Library
   Liviu Ungur et al                             : ANISO software


 Your calculation uses the libint2 library for the computation of 2-el integrals
 For citations please refer to: http://libint.valeyev.net

 Your ORCA version has been built with support for libXC version: 5.1.0
 For citations please refer to: https://tddft.org/programs/libxc/

 This ORCA versions uses:
   CBLAS   interface :  Fast vector & matrix operations
   LAPACKE interface :  Fast linear algebra routines
   SCALAPACK package :  Parallel linear algebra routines
   Shared memory     :  Shared parallel matrices
   BLAS/LAPACK       :  OpenBLAS 0.3.15  USE64BITINT DYNAMIC_ARCH NO_AFFINITY Nehalem SINGLE_THREADED
        Core in use  :  Nehalem
   Copyright (c) 2011-2014, The OpenBLAS Project


Your calculation utilizes the atom-pairwise dispersion correction
with the Becke-Johnson damping scheme (D3BJ)
Cite in your paper:
S.Grimme, S.Ehrlich, L.Goerigk, J Comput Chem, (2011), 32, 1456–1465 
S.Grimme, J.Antony, S.Ehrlich and H.Krieg, J.Chem.Phys., 132, (2010), 154104 
   

================================================================================

----- Orbital basis set information -----
Your calculation utilizes the basis: DKH-def2-TZVP
   Exponents from def2-TZVP [F. Weigend and R. Ahlrichs, Phys. Chem. Chem. Phys. 7, 3297 (2005)],
   recontracted for DKH2 by D. A. Pantazis.

----- AuxJ basis set information -----
Your calculation utilizes the auxiliary basis: def2/J
   F. Weigend, Phys. Chem. Chem. Phys. 8, 1057 (2006).

================================================================================
                                        WARNINGS
                       Please study these warnings very carefully!
================================================================================


WARNING: your system is open-shell and RHF/RKS was chosen
  ===> : WILL SWITCH to UHF/UKS


INFO   : the flag for use of the SHARK integral package has been found!

================================================================================
                                       INPUT FILE
================================================================================
NAME = run_nisalfix_eprnmr
|  1> !B3LYP D3BJ DKH DKH-def2-TZVP def2/J RIJCOSX DefGrid3 nofinalgridx TIGHTSCF slowconv keepdens somf(1X)
|  2> !KDIIS
|  3> 
|  4> %pal
|  5> nprocs 8
|  6> end
|  7> 
|  8> %maxcore 20000
|  9> 
| 10> *xyz 0 3
| 11> C   1.16124064102952      0.16692169973347      2.47606567226722
| 12> C   -3.05031885501092      2.43647200658452      7.68243349301785
| 13> C   -3.34719901949087      3.23115608264950      8.77734356796339
| 14> C   -2.35131423874804      3.58196449642106      9.71386131607833
| 15> C   -1.06678626049330      3.09769718735916      9.52499640376996
| 16> C   0.61085393020716      1.74167095496578      8.37438062486786
| 17> C   -2.01171824117489     -0.83980917142409      4.19556335677511
| 18> C   -1.84912907758488     -2.16319236165676      4.95637000106355
| 19> C   2.38514110443458      0.34152921164529      7.67172248462954
| 20> C   2.20023349272823     -1.20978155264610      7.72111586076827
| 21> C   2.14931182109141      0.49731856257146      3.47529302373169
| 22> C   3.46201730629737      0.80230089164486      2.99438989130089
| 23> C   3.77082112961468      0.80404370594832      1.64427911251587
| 24> C   2.79471585366547      0.49027359291828      0.67484306605680
| 25> C   1.51664187231264      0.17024067301094      1.10416398024884
| 26> C   -0.17994031283486     -0.24135679546641      2.82077990745738
| 27> C   -0.72546642523696      2.28430234991249      8.41590853086804
| 28> C   -1.73071894113219      1.94327564170514      7.43948785085882
| 29> H   -3.82051004421697      2.16157749475885      6.95665164643391
| 30> H   -4.37050473684108      3.59170204053734      8.92130965642231
| 31> H   -2.59458729509624      4.20943278261550     10.57379195960460
| 32> H   -0.28193580406344      3.33462488887812     10.25035504592128
| 33> H   1.23077931029507      1.95107702830158      9.26499009870099
| 34> H   -2.63553562509495     -0.15296234231392      4.78597186673668
| 35> H   -2.50841985606493     -1.04041965300755      3.22832272948281
| 36> H   3.05528053446689      0.59527643490252      6.84005912493597
| 37> H   2.83675201017453      0.69930748382530      8.61336379065326
| 38> H   4.21987236474135      1.04725249859212      3.74284665468682
| 39> H   4.78688977220111      1.05551923856284      1.32417646864671
| 40> H   3.04697207175033      0.49360135697352     -0.38807696644483
| 41> H   0.74653633603354     -0.09310618042740      0.37188393954864
| 42> H   -0.78294334502497     -0.63696089631641      1.98290927235775
| 43> Ni  0.17822978618364      0.41076257293438      5.72351242702910
| 44> N   -0.71678236827426     -0.21026543608076      3.99358274259028
| 45> N   1.11526958313784      1.00904383100463      7.44012990412668
| 46> N   0.13303591900038     -1.56502647841763      6.38645695872922
| 47> O   1.91538252737228      0.52025042412329      4.74470204534879
| 48> O   -1.50719822554021      1.22372795852204      6.38994669307384
| 49> C   -1.26222141558224     -2.05159096780095      6.36219448345465
| 50> C   0.74559713441556     -1.67257003675796      7.72163057284988
| 51> H   -2.84155152789799     -2.63415191048497      5.04800473936495
| 52> H   -1.23154691830986     -2.84995753935360      4.34989965677009
| 53> H   -1.86037860337958     -1.34951239230608      6.96302869372112
| 54> H   -1.32169059478712     -3.04103217641581      6.85394861104112
| 55> H   0.60820946686770     -2.69275577253857      8.12579494546677
| 56> H   0.15274579580029     -1.03269537303999      8.39294075968912
| 57> H   2.71748151532921     -1.66964096460422      6.86344805339806
| 58> H   2.68950930288408     -1.60086255598984      8.62540347315577
| 59> H   0.68942714984593     -2.10771253455333      5.72138180826367
| 60> *
| 61> 
| 62> %eprnmr
| 63> DTensor ssandso
| 64> DSOC cp
| 65> DSS UNO
| 66> gtensor 1
| 67> tol 3e-6
| 68> maxiter 200
| 69> ori CenterOfElCharge
| 70> printlevel 2
| 71> nuclei = all H {aiso, adip, aorb}
| 72> end
| 73> 
| 74>                          ****END OF INPUT****
================================================================================

                       ****************************
                       * Single Point Calculation *
                       ****************************

---------------------------------
CARTESIAN COORDINATES (ANGSTROEM)
---------------------------------
  C      1.161241    0.166922    2.476066
  C     -3.050319    2.436472    7.682433
  C     -3.347199    3.231156    8.777344
  C     -2.351314    3.581964    9.713861
  C     -1.066786    3.097697    9.524996
  C      0.610854    1.741671    8.374381
  C     -2.011718   -0.839809    4.195563
  C     -1.849129   -2.163192    4.956370
  C      2.385141    0.341529    7.671722
  C      2.200233   -1.209782    7.721116
  C      2.149312    0.497319    3.475293
  C      3.462017    0.802301    2.994390
  C      3.770821    0.804044    1.644279
  C      2.794716    0.490274    0.674843
  C      1.516642    0.170241    1.104164
  C     -0.179940   -0.241357    2.820780
  C     -0.725466    2.284302    8.415909
  C     -1.730719    1.943276    7.439488
  H     -3.820510    2.161577    6.956652
  H     -4.370505    3.591702    8.921310
  H     -2.594587    4.209433   10.573792
  H     -0.281936    3.334625   10.250355
  H      1.230779    1.951077    9.264990
  H     -2.635536   -0.152962    4.785972
  H     -2.508420   -1.040420    3.228323
  H      3.055281    0.595276    6.840059
  H      2.836752    0.699307    8.613364
  H      4.219872    1.047252    3.742847
  H      4.786890    1.055519    1.324176
  H      3.046972    0.493601   -0.388077
  H      0.746536   -0.093106    0.371884
  H     -0.782943   -0.636961    1.982909
  Ni     0.178230    0.410763    5.723512
  N     -0.716782   -0.210265    3.993583
  N      1.115270    1.009044    7.440130
  N      0.133036   -1.565026    6.386457
  O      1.915383    0.520250    4.744702
  O     -1.507198    1.223728    6.389947
  C     -1.262221   -2.051591    6.362194
  C      0.745597   -1.672570    7.721631
  H     -2.841552   -2.634152    5.048005
  H     -1.231547   -2.849958    4.349900
  H     -1.860379   -1.349512    6.963029
  H     -1.321691   -3.041032    6.853949
  H      0.608209   -2.692756    8.125795
  H      0.152746   -1.032695    8.392941
  H      2.717482   -1.669641    6.863448
  H      2.689509   -1.600863    8.625403
  H      0.689427   -2.107713    5.721382

----------------------------
CARTESIAN COORDINATES (A.U.)
----------------------------
  NO LB      ZA    FRAG     MASS         X           Y           Z
   0 C     6.0000    0    12.011    2.194427    0.315436    4.679086
   1 C     6.0000    0    12.011   -5.764267    4.604265   14.517695
   2 C     6.0000    0    12.011   -6.325289    6.106000   16.586776
   3 C     6.0000    0    12.011   -4.443340    6.768932   18.356538
   4 C     6.0000    0    12.011   -2.015934    5.853799   17.999635
   5 C     6.0000    0    12.011    1.154347    3.291281   15.825286
   6 C     6.0000    0    12.011   -3.801597   -1.587009    7.928466
   7 C     6.0000    0    12.011   -3.494348   -4.087841    9.366182
   8 C     6.0000    0    12.011    4.507263    0.645397   14.497454
   9 C     6.0000    0    12.011    4.157839   -2.286156   14.590794
  10 C     6.0000    0    12.011    4.061611    0.939796    6.567352
  11 C     6.0000    0    12.011    6.542265    1.516129    5.658577
  12 C     6.0000    0    12.011    7.125819    1.519422    3.107237
  13 C     6.0000    0    12.011    5.281248    0.926483    1.275269
  14 C     6.0000    0    12.011    2.866038    0.321708    2.086568
  15 C     6.0000    0    12.011   -0.340038   -0.456098    5.330502
  16 C     6.0000    0    12.011   -1.370933    4.316706   15.903762
  17 C     6.0000    0    12.011   -3.270585    3.672259   14.058595
  18 H     1.0000    0     1.008   -7.219718    4.084789   13.146166
  19 H     1.0000    0     1.008   -8.259057    6.787333   16.858832
  20 H     1.0000    0     1.008   -4.903059    7.954675   19.981571
  21 H     1.0000    0     1.008   -0.532781    6.301528   19.370364
  22 H     1.0000    0     1.008    2.325836    3.687001   17.508294
  23 H     1.0000    0     1.008   -4.980441   -0.289057    9.044176
  24 H     1.0000    0     1.008   -4.740227   -1.966108    6.100646
  25 H     1.0000    0     1.008    5.773643    1.124909   12.925838
  26 H     1.0000    0     1.008    5.360684    1.321500   16.276899
  27 H     1.0000    0     1.008    7.974403    1.979020    7.072955
  28 H     1.0000    0     1.008    9.045911    1.994642    2.502331
  29 H     1.0000    0     1.008    5.757943    0.932771   -0.733359
  30 H     1.0000    0     1.008    1.410749   -0.175945    0.702759
  31 H     1.0000    0     1.008   -1.479549   -1.203682    3.747155
  32 Ni   28.0000    0    58.700    0.336805    0.776229   10.815871
  33 N     7.0000    0    14.007   -1.354522   -0.397344    7.546778
  34 N     7.0000    0    14.007    2.107554    1.906816   14.059808
  35 N     7.0000    0    14.007    0.251401   -2.957471   12.068655
  36 O     8.0000    0    15.999    3.619548    0.983131    8.966187
  37 O     8.0000    0    15.999   -2.848192    2.312511   12.075249
  38 C     6.0000    0    12.011   -2.385253   -3.876945   12.022805
  39 C     6.0000    0    12.011    1.408974   -3.160699   14.591767
  40 H     1.0000    0     1.008   -5.369754   -4.977826    9.539346
  41 H     1.0000    0     1.008   -2.327286   -5.385639    8.220119
  42 H     1.0000    0     1.008   -3.515606   -2.550209   13.158217
  43 H     1.0000    0     1.008   -2.497633   -5.746718   12.952086
  44 H     1.0000    0     1.008    1.149349   -5.088571   15.355527
  45 H     1.0000    0     1.008    0.288648   -1.951511   15.860359
  46 H     1.0000    0     1.008    5.135296   -3.155164   12.970037
  47 H     1.0000    0     1.008    5.082436   -3.025192   16.299650
  48 H     1.0000    0     1.008    1.302829   -3.982999   10.811845

--------------------------------
INTERNAL COORDINATES (ANGSTROEM)
--------------------------------
 C      0   0   0     0.000000000000     0.00000000     0.00000000
 C      1   0   0     7.070668841698     0.00000000     0.00000000
 C      2   1   0     1.385095189881   153.36689523     0.00000000
 C      3   2   1     1.411353439866   121.05812577   324.61529475
 C      4   3   2     1.385711697521   118.47627612   359.13061577
 C      5   4   3     2.444831369042   153.38950395   355.02615047
 C      1   2   3     3.746711545093    40.87776393   166.90267305
 C      7   1   2     1.535123791198   111.67799474   245.29636522
 C      6   5   4     2.366900999210   169.17667157   220.54923553
 C      9   6   5     1.563072492842   119.27747119    80.89801914
 C      1   2   3     1.443572666601    79.89484310    31.83319318
 C     11   1   2     1.430901021985   116.36400289   204.38406143
 C     12  11   1     1.384977239412   122.17051102     1.02082045
 C     13  12  11     1.411041970227   121.01215481   359.45457874
 C     14  13  12     1.385716644556   118.45872079   359.58308488
 C      1   2   3     1.443705504801    50.32884382   180.50716063
 C      5   4   3     1.417104901319   122.04134222     0.98107998
 C      2   1  15     1.429548590319    38.21432671   206.31476455
 H      2   1  15     1.093398714739    81.37900174    47.96853551
 H      3   2   1     1.094474400586   119.56338231   144.76160682
 H      4   3   2     1.091961053243   120.54317212   179.96653554
 H      5   4   3     1.094655258266   119.91249922   181.51598212
 H      6   5   4     1.105144160419    84.29261434   193.79638399
 H      7   1   2     1.099767658996   123.98191945    19.66886056
 H      7   1   2     1.105672415610    91.58806458   134.16020243
 H      9   6  23     1.097787981739   123.07751636   251.73109691
 H      9   6  23     1.103923027859    82.05175423   358.98149402
 H     12  11   1     1.092946982252   116.98420905   180.40519775
 H     13  12  11     1.094578061430   119.49483080   179.27457141
 H     14  13  12     1.092448291257   120.53428823   180.02634410
 H     15  14  13     1.094827913524   119.80777367   181.02021403
 H     16   1   2     1.105505523551   115.27432421   153.07710295
 Ni     9   6  23     2.944617675264    67.70852402   181.02495811
 N     16   1   2     1.290206400237   126.63890836   331.72450171
 N      6   5   4     1.289962039322   157.54645953    13.10427083
 N     33   9   6     2.084533596080    77.49935864   245.96500779
 O     11   1   2     1.290987238084   124.10149278    24.92263786
 O     18   2   1     1.291993428992   119.33359443   336.63236347
 C     36  33   9     1.477862205939   109.10543729   147.90743882
 C     36  33   9     1.472917322668   110.39420149    23.73017612
 H      8   7   1     1.102316715732   108.31010764   205.03486465
 H      8   7   1     1.104925522947   108.84399312   320.39015748
 H     39  36  33     1.100776133330   107.10204561   304.79851376
 H     39  36  33     1.106504681680   109.74584584   188.54700096
 H     40  36  33     1.105894726806   110.30244228   172.91999255
 H     40  36  33     1.100713251451   106.64309592    60.28373077
 H     10   9   6     1.102093581984   109.51219261   144.14139373
 H     10   9   6     1.100032388386   109.03846806   260.21321165
 H     36  33   9     1.022939056373   106.51567733   265.61489913

---------------------------
INTERNAL COORDINATES (A.U.)
---------------------------
 C      0   0   0     0.000000000000     0.00000000     0.00000000
 C      1   0   0    13.361627694460     0.00000000     0.00000000
 C      2   1   0     2.617450578286   153.36689523     0.00000000
 C      3   2   1     2.667071479515   121.05812577   324.61529475
 C      4   3   2     2.618615608886   118.47627612   359.13061577
 C      5   4   3     4.620061731109   153.38950395   355.02615047
 C      1   2   3     7.080258723026    40.87776393   166.90267305
 C      7   1   2     2.900963547030   111.67799474   245.29636522
 C      6   5   4     4.472794674611   169.17667157   220.54923553
 C      9   6   5     2.953778938937   119.27747119    80.89801914
 C      1   2   3     2.727956994290    79.89484310    31.83319318
 C     11   1   2     2.704011056300   116.36400289   204.38406143
 C     12  11   1     2.617227684202   122.17051102     1.02082045
 C     13  12  11     2.666482887197   121.01215481   359.45457874
 C     14  13  12     2.618624957426   118.45872079   359.58308488
 C      1   2   3     2.728208022109    50.32884382   180.50716063
 C      5   4   3     2.677940166530   122.04134222     0.98107998
 C      2   1  15     2.701455330836    38.21432671   206.31476455
 H      2   1  15     2.066224126039    81.37900174    47.96853551
 H      3   2   1     2.068256877694   119.56338231   144.76160682
 H      4   3   2     2.063507339538   120.54317212   179.96653554
 H      5   4   3     2.068598649179   119.91249922   181.51598212
 H      6   5   4     2.088419801694    84.29261434   193.79638399
 H      7   1   2     2.078259686447   123.98191945    19.66886056
 H      7   1   2     2.089418059334    91.58806458   134.16020243
 H      9   6  23     2.074518638598   123.07751636   251.73109691
 H      9   6  23     2.086112195583    82.05175423   358.98149402
 H     12  11   1     2.065370475352   116.98420905   180.40519775
 H     13  12  11     2.068452768301   119.49483080   179.27457141
 H     14  13  12     2.064428085945   120.53428823   180.02634410
 H     15  14  13     2.068924920333   119.80777367   181.02021403
 H     16   1   2     2.089102679049   115.27432421   153.07710295
 Ni     9   6  23     5.564520975352    67.70852402   181.02495811
 N     16   1   2     2.438136752680   126.63890836   331.72450171
 N      6   5   4     2.437674977472   157.54645953    13.10427083
 N     33   9   6     3.939197613548    77.49935864   245.96500779
 O     11   1   2     2.439612322367   124.10149278    24.92263786
 O     18   2   1     2.441513747620   119.33359443   336.63236347
 C     36  33   9     2.792754832897   109.10543729   147.90743882
 C     36  33   9     2.783410357751   110.39420149    23.73017612
 H      8   7   1     2.083076705576   108.31010764   205.03486465
 H      8   7   1     2.088006636749   108.84399312   320.39015748
 H     39  36  33     2.080165426751   107.10204561   304.79851376
 H     39  36  33     2.090990814276   109.74584584   188.54700096
 H     40  36  33     2.089838166611   110.30244228   172.91999255
 H     40  36  33     2.080046597221   106.64309592    60.28373077
 H     10   9   6     2.082655043902   109.51219261   144.14139373
 H     10   9   6     2.078759952492   109.03846806   260.21321165
 H     36  33   9     1.933074668236   106.51567733   265.61489913

---------------------
BASIS SET INFORMATION
---------------------
There are 5 groups of distinct atoms

 Group   1 Type C   : 11s6p2d1f contracted to 6s3p2d1f pattern {611111/411/11/1}
 Group   2 Type H   : 5s1p contracted to 3s1p pattern {311/1}
 Group   3 Type Ni  : 17s11p7d1f contracted to 10s6p4d1f pattern {8111111111/611111/4111/1}
 Group   4 Type N   : 11s6p2d1f contracted to 6s3p2d1f pattern {611111/411/11/1}
 Group   5 Type O   : 11s6p2d1f contracted to 6s3p2d1f pattern {611111/411/11/1}

Atom   0C    basis set group =>   1
Atom   1C    basis set group =>   1
Atom   2C    basis set group =>   1
Atom   3C    basis set group =>   1
Atom   4C    basis set group =>   1
Atom   5C    basis set group =>   1
Atom   6C    basis set group =>   1
Atom   7C    basis set group =>   1
Atom   8C    basis set group =>   1
Atom   9C    basis set group =>   1
Atom  10C    basis set group =>   1
Atom  11C    basis set group =>   1
Atom  12C    basis set group =>   1
Atom  13C    basis set group =>   1
Atom  14C    basis set group =>   1
Atom  15C    basis set group =>   1
Atom  16C    basis set group =>   1
Atom  17C    basis set group =>   1
Atom  18H    basis set group =>   2
Atom  19H    basis set group =>   2
Atom  20H    basis set group =>   2
Atom  21H    basis set group =>   2
Atom  22H    basis set group =>   2
Atom  23H    basis set group =>   2
Atom  24H    basis set group =>   2
Atom  25H    basis set group =>   2
Atom  26H    basis set group =>   2
Atom  27H    basis set group =>   2
Atom  28H    basis set group =>   2
Atom  29H    basis set group =>   2
Atom  30H    basis set group =>   2
Atom  31H    basis set group =>   2
Atom  32Ni   basis set group =>   3
Atom  33N    basis set group =>   4
Atom  34N    basis set group =>   4
Atom  35N    basis set group =>   4
Atom  36O    basis set group =>   5
Atom  37O    basis set group =>   5
Atom  38C    basis set group =>   1
Atom  39C    basis set group =>   1
Atom  40H    basis set group =>   2
Atom  41H    basis set group =>   2
Atom  42H    basis set group =>   2
Atom  43H    basis set group =>   2
Atom  44H    basis set group =>   2
Atom  45H    basis set group =>   2
Atom  46H    basis set group =>   2
Atom  47H    basis set group =>   2
Atom  48H    basis set group =>   2
---------------------------------
AUXILIARY/J BASIS SET INFORMATION
---------------------------------
There are 5 groups of distinct atoms

 Group   1 Type C   : 12s5p4d2f1g contracted to 6s4p3d1f1g pattern {711111/2111/211/2/1}
 Group   2 Type H   : 5s2p1d contracted to 3s1p1d pattern {311/2/1}
 Group   3 Type Ni  : 19s5p5d3f3g contracted to 8s5p5d2f3g pattern {121111111/11111/11111/21/111}
 Group   4 Type N   : 12s5p4d2f1g contracted to 6s4p3d1f1g pattern {711111/2111/211/2/1}
 Group   5 Type O   : 12s5p4d2f1g contracted to 6s4p3d1f1g pattern {711111/2111/211/2/1}

Atom   0C    basis set group =>   1
Atom   1C    basis set group =>   1
Atom   2C    basis set group =>   1
Atom   3C    basis set group =>   1
Atom   4C    basis set group =>   1
Atom   5C    basis set group =>   1
Atom   6C    basis set group =>   1
Atom   7C    basis set group =>   1
Atom   8C    basis set group =>   1
Atom   9C    basis set group =>   1
Atom  10C    basis set group =>   1
Atom  11C    basis set group =>   1
Atom  12C    basis set group =>   1
Atom  13C    basis set group =>   1
Atom  14C    basis set group =>   1
Atom  15C    basis set group =>   1
Atom  16C    basis set group =>   1
Atom  17C    basis set group =>   1
Atom  18H    basis set group =>   2
Atom  19H    basis set group =>   2
Atom  20H    basis set group =>   2
Atom  21H    basis set group =>   2
Atom  22H    basis set group =>   2
Atom  23H    basis set group =>   2
Atom  24H    basis set group =>   2
Atom  25H    basis set group =>   2
Atom  26H    basis set group =>   2
Atom  27H    basis set group =>   2
Atom  28H    basis set group =>   2
Atom  29H    basis set group =>   2
Atom  30H    basis set group =>   2
Atom  31H    basis set group =>   2
Atom  32Ni   basis set group =>   3
Atom  33N    basis set group =>   4
Atom  34N    basis set group =>   4
Atom  35N    basis set group =>   4
Atom  36O    basis set group =>   5
Atom  37O    basis set group =>   5
Atom  38C    basis set group =>   1
Atom  39C    basis set group =>   1
Atom  40H    basis set group =>   2
Atom  41H    basis set group =>   2
Atom  42H    basis set group =>   2
Atom  43H    basis set group =>   2
Atom  44H    basis set group =>   2
Atom  45H    basis set group =>   2
Atom  46H    basis set group =>   2
Atom  47H    basis set group =>   2
Atom  48H    basis set group =>   2


           ************************************************************
           *        Program running with 8 parallel MPI-processes     *
           *              working on a common directory               *
           ************************************************************
------------------------------------------------------------------------------
                           ORCA GTO INTEGRAL CALCULATION
                           -- RI-GTO INTEGRALS CHOSEN --
------------------------------------------------------------------------------
------------------------------------------------------------------------------
                   ___                                                        
                  /   \      - P O W E R E D   B Y -                         
                 /     \                                                     
                 |  |  |   _    _      __       _____    __    __             
                 |  |  |  | |  | |    /  \     |  _  \  |  |  /  |          
                  \  \/   | |  | |   /    \    | | | |  |  | /  /          
                 / \  \   | |__| |  /  /\  \   | |_| |  |  |/  /          
                |  |  |   |  __  | /  /__\  \  |    /   |      \           
                |  |  |   | |  | | |   __   |  |    \   |  |\   \          
                \     /   | |  | | |  |  |  |  | |\  \  |  | \   \       
                 \___/    |_|  |_| |__|  |__|  |_| \__\ |__|  \__/        
                                                                              
                      - O R C A' S   B I G   F R I E N D -                    
                                      &                                       
                       - I N T E G R A L  F E E D E R -                       
                                                                              
 v1 FN, 2020, v2 2021                                                         
------------------------------------------------------------------------------


Reading SHARK input file run_nisalfix_eprnmr.SHARKINP.tmp ... ok
----------------------
SHARK INTEGRAL PACKAGE
----------------------

Number of atoms                             ...     49
Number of basis functions                   ...    993
Number of shells                            ...    413
Maximum angular momentum                    ...      3
Integral batch strategy                     ... SHARK/LIBINT Hybrid
RI-J (if used) integral strategy            ... SPLIT-RIJ (Revised 2003 algorithm where possible)
Printlevel                                  ...      1
Contraction scheme used                     ... SEGMENTED contraction
Coulomb Range Separation                    ... NOT USED
Exchange Range Separation                   ... NOT USED
Finite Nucleus Model                        ... NOT USED
Auxiliary Coulomb fitting basis             ... AVAILABLE
   # of basis functions in Aux-J            ...   1567
   # of shells in Aux-J                     ...    513
   Maximum angular momentum in Aux-J        ...      4
Auxiliary J/K fitting basis                 ... NOT available
Auxiliary Correlation fitting basis         ... NOT available
Auxiliary 'external' fitting basis          ... NOT available
Integral threshold                          ...     2.500000e-11
Primitive cut-off                           ...     2.500000e-12
Primitive pair pre-selection threshold      ...     2.500000e-12

Calculating pre-screening integrals         ... done (  0.2 sec) Dimension = 413
Organizing shell pair data                  ... done (  1.4 sec)
Shell pair information
Total number of shell pairs                 ...     85491
Shell pairs after pre-screening             ...     55483
Total number of primitive shell pairs       ...    228118
Primitive shell pairs kept                  ...    100729
          la=0 lb=0:  16010 shell pairs
          la=1 lb=0:  16210 shell pairs
          la=1 lb=1:   4110 shell pairs
          la=2 lb=0:   7802 shell pairs
          la=2 lb=1:   4051 shell pairs
          la=2 lb=2:   1033 shell pairs
          la=3 lb=0:   3388 shell pairs
          la=3 lb=1:   1807 shell pairs
          la=3 lb=2:    877 shell pairs
          la=3 lb=3:    195 shell pairs

Calculating one electron integrals          ... done (  0.2 sec)
Calculating RI/J V-Matrix + Cholesky decomp.... done (  0.2 sec)
Calculating Nuclear repulsion               ... done (  0.0 sec) ENN=   3003.031854716306 Eh

SHARK setup successfully completed in   2.9 seconds

Maximum memory used throughout the entire GTOINT-calculation: 79.5 MB
[1703934266.966247] [node382:7520 :0]          mpool.c:44   UCX  WARN  object 0x241d780 was not returned to mpool ucp_requests
[1703934266.966264] [node382:7520 :0]          mpool.c:44   UCX  WARN  object 0x241d940 was not returned to mpool ucp_requests
[1703934266.966269] [node382:7520 :0]          mpool.c:44   UCX  WARN  object 0x241db00 was not returned to mpool ucp_requests
[1703934266.966276] [node382:7520 :0]          mpool.c:44   UCX  WARN  object 0x241dcc0 was not returned to mpool ucp_requests
[1703934266.966280] [node382:7520 :0]          mpool.c:44   UCX  WARN  object 0x241de80 was not returned to mpool ucp_requests
[1703934266.966284] [node382:7520 :0]          mpool.c:44   UCX  WARN  object 0x241e040 was not returned to mpool ucp_requests
[1703934266.966287] [node382:7520 :0]          mpool.c:44   UCX  WARN  object 0x241e200 was not returned to mpool ucp_requests
[1703934266.966291] [node382:7520 :0]          mpool.c:44   UCX  WARN  object 0x241e3c0 was not returned to mpool ucp_requests
[1703934266.966294] [node382:7520 :0]          mpool.c:44   UCX  WARN  object 0x241e580 was not returned to mpool ucp_requests
[1703934266.966302] [node382:7520 :0]          mpool.c:44   UCX  WARN  object 0x241e740 was not returned to mpool ucp_requests
[1703934266.966305] [node382:7520 :0]          mpool.c:44   UCX  WARN  object 0x241e900 was not returned to mpool ucp_requests
[1703934266.966309] [node382:7520 :0]          mpool.c:44   UCX  WARN  object 0x241eac0 was not returned to mpool ucp_requests
[1703934266.979929] [node382:7522 :0]          mpool.c:44   UCX  WARN  object 0x241f540 was not returned to mpool ucp_requests
[1703934266.979950] [node382:7522 :0]          mpool.c:44   UCX  WARN  object 0x241f700 was not returned to mpool ucp_requests
[1703934266.979955] [node382:7522 :0]          mpool.c:44   UCX  WARN  object 0x241f8c0 was not returned to mpool ucp_requests
[1703934266.979959] [node382:7522 :0]          mpool.c:44   UCX  WARN  object 0x241fa80 was not returned to mpool ucp_requests
[1703934266.979966] [node382:7522 :0]          mpool.c:44   UCX  WARN  object 0x241fc40 was not returned to mpool ucp_requests
[1703934266.979970] [node382:7522 :0]          mpool.c:44   UCX  WARN  object 0x241fe00 was not returned to mpool ucp_requests
[1703934266.979974] [node382:7522 :0]          mpool.c:44   UCX  WARN  object 0x241ffc0 was not returned to mpool ucp_requests
[1703934266.979977] [node382:7522 :0]          mpool.c:44   UCX  WARN  object 0x2420180 was not returned to mpool ucp_requests
[1703934266.979981] [node382:7522 :0]          mpool.c:44   UCX  WARN  object 0x2420340 was not returned to mpool ucp_requests
[1703934266.979985] [node382:7522 :0]          mpool.c:44   UCX  WARN  object 0x2420500 was not returned to mpool ucp_requests
[1703934266.979989] [node382:7522 :0]          mpool.c:44   UCX  WARN  object 0x24206c0 was not returned to mpool ucp_requests
[1703934266.979993] [node382:7522 :0]          mpool.c:44   UCX  WARN  object 0x2420880 was not returned to mpool ucp_requests
[1703934266.980286] [node382:7517 :0]          mpool.c:44   UCX  WARN  object 0x241fb00 was not returned to mpool ucp_requests
[1703934266.980301] [node382:7517 :0]          mpool.c:44   UCX  WARN  object 0x241fcc0 was not returned to mpool ucp_requests
[1703934266.980306] [node382:7517 :0]          mpool.c:44   UCX  WARN  object 0x241fe80 was not returned to mpool ucp_requests
[1703934266.980310] [node382:7517 :0]          mpool.c:44   UCX  WARN  object 0x2420040 was not returned to mpool ucp_requests
[1703934266.980314] [node382:7517 :0]          mpool.c:44   UCX  WARN  object 0x2420200 was not returned to mpool ucp_requests
[1703934266.980318] [node382:7517 :0]          mpool.c:44   UCX  WARN  object 0x24203c0 was not returned to mpool ucp_requests
[1703934266.980321] [node382:7517 :0]          mpool.c:44   UCX  WARN  object 0x2420580 was not returned to mpool ucp_requests
[1703934266.980325] [node382:7517 :0]          mpool.c:44   UCX  WARN  object 0x2420740 was not returned to mpool ucp_requests
[1703934266.980329] [node382:7517 :0]          mpool.c:44   UCX  WARN  object 0x2420900 was not returned to mpool ucp_requests
[1703934266.980333] [node382:7517 :0]          mpool.c:44   UCX  WARN  object 0x2420ac0 was not returned to mpool ucp_requests
[1703934266.980338] [node382:7517 :0]          mpool.c:44   UCX  WARN  object 0x2420c80 was not returned to mpool ucp_requests
[1703934266.980342] [node382:7517 :0]          mpool.c:44   UCX  WARN  object 0x2420e40 was not returned to mpool ucp_requests
[1703934266.981032] [node382:7518 :0]          mpool.c:44   UCX  WARN  object 0x241a240 was not returned to mpool ucp_requests
[1703934266.981047] [node382:7518 :0]          mpool.c:44   UCX  WARN  object 0x241a400 was not returned to mpool ucp_requests
[1703934266.981052] [node382:7518 :0]          mpool.c:44   UCX  WARN  object 0x241a5c0 was not returned to mpool ucp_requests
[1703934266.981056] [node382:7518 :0]          mpool.c:44   UCX  WARN  object 0x241a780 was not returned to mpool ucp_requests
[1703934266.981059] [node382:7518 :0]          mpool.c:44   UCX  WARN  object 0x241a940 was not returned to mpool ucp_requests
[1703934266.981064] [node382:7518 :0]          mpool.c:44   UCX  WARN  object 0x241ab00 was not returned to mpool ucp_requests
[1703934266.981068] [node382:7518 :0]          mpool.c:44   UCX  WARN  object 0x241acc0 was not returned to mpool ucp_requests
[1703934266.981072] [node382:7518 :0]          mpool.c:44   UCX  WARN  object 0x241ae80 was not returned to mpool ucp_requests
[1703934266.981076] [node382:7518 :0]          mpool.c:44   UCX  WARN  object 0x241b040 was not returned to mpool ucp_requests
[1703934266.981080] [node382:7518 :0]          mpool.c:44   UCX  WARN  object 0x241b200 was not returned to mpool ucp_requests
[1703934266.981085] [node382:7518 :0]          mpool.c:44   UCX  WARN  object 0x241b3c0 was not returned to mpool ucp_requests
[1703934266.981092] [node382:7518 :0]          mpool.c:44   UCX  WARN  object 0x241b580 was not returned to mpool ucp_requests
[1703934266.981947] [node382:7519 :0]          mpool.c:44   UCX  WARN  object 0x241da00 was not returned to mpool ucp_requests
[1703934266.981965] [node382:7519 :0]          mpool.c:44   UCX  WARN  object 0x241dbc0 was not returned to mpool ucp_requests
[1703934266.981972] [node382:7519 :0]          mpool.c:44   UCX  WARN  object 0x241dd80 was not returned to mpool ucp_requests
[1703934266.981979] [node382:7519 :0]          mpool.c:44   UCX  WARN  object 0x241df40 was not returned to mpool ucp_requests
[1703934266.981983] [node382:7519 :0]          mpool.c:44   UCX  WARN  object 0x241e100 was not returned to mpool ucp_requests
[1703934266.981987] [node382:7519 :0]          mpool.c:44   UCX  WARN  object 0x241e2c0 was not returned to mpool ucp_requests
[1703934266.981991] [node382:7519 :0]          mpool.c:44   UCX  WARN  object 0x241e480 was not returned to mpool ucp_requests
[1703934266.981995] [node382:7519 :0]          mpool.c:44   UCX  WARN  object 0x241e640 was not returned to mpool ucp_requests
[1703934266.981999] [node382:7519 :0]          mpool.c:44   UCX  WARN  object 0x241e800 was not returned to mpool ucp_requests
[1703934266.982003] [node382:7519 :0]          mpool.c:44   UCX  WARN  object 0x241e9c0 was not returned to mpool ucp_requests
[1703934266.982008] [node382:7519 :0]          mpool.c:44   UCX  WARN  object 0x241eb80 was not returned to mpool ucp_requests
[1703934266.982012] [node382:7519 :0]          mpool.c:44   UCX  WARN  object 0x241ed40 was not returned to mpool ucp_requests
[1703934266.984015] [node382:7516 :0]          mpool.c:44   UCX  WARN  object 0x241e040 was not returned to mpool ucp_requests
[1703934266.984030] [node382:7516 :0]          mpool.c:44   UCX  WARN  object 0x241e200 was not returned to mpool ucp_requests
[1703934266.984038] [node382:7516 :0]          mpool.c:44   UCX  WARN  object 0x241e3c0 was not returned to mpool ucp_requests
[1703934266.984043] [node382:7516 :0]          mpool.c:44   UCX  WARN  object 0x241e580 was not returned to mpool ucp_requests
[1703934266.984046] [node382:7516 :0]          mpool.c:44   UCX  WARN  object 0x241e740 was not returned to mpool ucp_requests
[1703934266.984050] [node382:7516 :0]          mpool.c:44   UCX  WARN  object 0x241eac0 was not returned to mpool ucp_requests
[1703934266.984054] [node382:7516 :0]          mpool.c:44   UCX  WARN  object 0x241ec80 was not returned to mpool ucp_requests
[1703934266.984058] [node382:7516 :0]          mpool.c:44   UCX  WARN  object 0x241ee40 was not returned to mpool ucp_requests
[1703934266.984301] [node382:7521 :0]          mpool.c:44   UCX  WARN  object 0x241f300 was not returned to mpool ucp_requests
[1703934266.984316] [node382:7521 :0]          mpool.c:44   UCX  WARN  object 0x241f4c0 was not returned to mpool ucp_requests
[1703934266.984321] [node382:7521 :0]          mpool.c:44   UCX  WARN  object 0x241f680 was not returned to mpool ucp_requests
[1703934266.984325] [node382:7521 :0]          mpool.c:44   UCX  WARN  object 0x241f840 was not returned to mpool ucp_requests
[1703934266.984329] [node382:7521 :0]          mpool.c:44   UCX  WARN  object 0x241fa00 was not returned to mpool ucp_requests
[1703934266.984333] [node382:7521 :0]          mpool.c:44   UCX  WARN  object 0x241fbc0 was not returned to mpool ucp_requests
[1703934266.984337] [node382:7521 :0]          mpool.c:44   UCX  WARN  object 0x241fd80 was not returned to mpool ucp_requests
[1703934266.984340] [node382:7521 :0]          mpool.c:44   UCX  WARN  object 0x241ff40 was not returned to mpool ucp_requests
[1703934266.984344] [node382:7521 :0]          mpool.c:44   UCX  WARN  object 0x2420100 was not returned to mpool ucp_requests
[1703934266.984348] [node382:7521 :0]          mpool.c:44   UCX  WARN  object 0x24202c0 was not returned to mpool ucp_requests
[1703934266.984352] [node382:7521 :0]          mpool.c:44   UCX  WARN  object 0x2420480 was not returned to mpool ucp_requests
[1703934266.984356] [node382:7521 :0]          mpool.c:44   UCX  WARN  object 0x2420640 was not returned to mpool ucp_requests


           ************************************************************
           *        Program running with 8 parallel MPI-processes     *
           *              working on a common directory               *
           ************************************************************
------------------------------------------------------------------------------
                          ORCA RELATIVISTIC HAMILTONIAN
------------------------------------------------------------------------------

Relativistic Method            ... DKH
Order of DKH treatment         ...   2
Treatment of potential         ... V(e,N)
Eps parameter for DKH          ...   0.00000000010000
Nucleus model                  ... Point Nucleus
Speed of light used            ... 137.03598950000000


            ************************************************
            *        DOUGLAS-KROLL-HESS HAMILTONIAN        *
            *   Programmed by FN according to literature   *
            *        procedures. Special thanks to         *
            *       B.A. Hess, M. Reiher and A. Wolf       *
            *     University Erlangen-Nuernberg/Bonn       *
            ************************************************

Uncontracting the basis (first version)        ... done
Number of contracted basis functions           ...  993
Number of uncontracted basis functions         ... 1426
Initializing the DKH file                      ... done
Calculating the relativistic integrals         ... done
Storing DKH matrices                           ... done
Code used for DKH trafo                        ... ORCA
Computing the DKH transformation               ... done
Storing the transformation variables           ... done
Transforming V and pVp to p**2 space           ... done
First transformation of V and pVp              ... done
Second transformation of Veff                  ... done
Adding kinetic energy                          ... done
Back transformation of Veff to r-space         ... done
Recovering DKH matrices                        ... done
Recontracting the H-matrix (first version)     ... done
Computing the DKH correction to the H-matrix   ... done
Reading the original H-matrix                  ... done
Adding DKH correction to the H-matrix          ... done
Storing the new modified H-matrix              ... done

Maximum memory used throughout the entire REL-calculation: 134.9 MB


           ************************************************************
           *        Program running with 8 parallel MPI-processes     *
           *              working on a common directory               *
           ************************************************************
-------------------------------------------------------------------------------
                                 ORCA SCF
-------------------------------------------------------------------------------

------------
SCF SETTINGS
------------
Hamiltonian:
 Density Functional     Method          .... DFT(GTOs)
 Exchange Functional    Exchange        .... B88
   X-Alpha parameter    XAlpha          ....  0.666667
   Becke's b parameter  XBeta           ....  0.004200
 Correlation Functional Correlation     .... LYP
 LDA part of GGA corr.  LDAOpt          .... VWN-5
 Gradients option       PostSCFGGA      .... off
 Hybrid DFT is turned on
   Fraction HF Exchange ScalHFX         ....  0.200000
   Scaling of DF-GGA-X  ScalDFX         ....  0.720000
   Scaling of DF-GGA-C  ScalDFC         ....  0.810000
   Scaling of DF-LDA-C  ScalLDAC        ....  1.000000
   Perturbative correction              ....  0.000000
   Density functional embedding theory  .... OFF
   NL short-range parameter             ....  4.800000
 RI-approximation to the Coulomb term is turned on
   Number of AuxJ basis functions       .... 1567
   RIJ-COSX (HFX calculated with COS-X)).... on

Relativistic Settings:
 Scalar relativistic method             .... Douglas-Kroll-Hess
 Order of DKH procedure    Order        ....    2
 Mode of DKH-treatment                  .... V=V(e,N)
 Speed of light used       Velit        ....       137.035989
 Cutoff-constant           Eps          ....            1e-10 


General Settings:
 Integral files         IntName         .... run_nisalfix_eprnmr
 Hartree-Fock type      HFTyp           .... UHF
 Total Charge           Charge          ....    0
 Multiplicity           Mult            ....    3
 Number of Electrons    NEL             ....  208
 Basis Dimension        Dim             ....  993
 Nuclear Repulsion      ENuc            ....   3003.0318547163 Eh

Convergence Acceleration:
 DIIS                   CNVDIIS         .... off
 Trust-Rad. Augm. Hess. CNVTRAH         .... auto
   Auto Start mean grad. ratio tolernc. ....  1.125000
   Auto Start start iteration           ....    20
   Auto Start num. interpolation iter.  ....    10
   Max. Number of Micro iterations      ....    16
   Max. Number of Macro iterations      .... Maxiter - #DIIS iter
   Number of Davidson start vectors     ....     2
   Converg. threshold I  (grad. norm)   ....   1.000e-05
   Converg. threshold II (energy diff.) ....   1.000e-08
   Grad. Scal. Fac. for Micro threshold ....   0.100
   Minimum threshold for Micro iter.    ....   0.010
   NR start threshold (gradient norm)   ....   0.001
   Initial trust radius                 ....   0.400
   Minimum AH scaling param. (alpha)    ....   1.000
   Maximum AH scaling param. (alpha)    .... 1000.000
   Orbital update algorithm             .... Taylor
   White noise on init. David. guess    .... on
   Maximum white noise                  ....   0.010
   Quad. conv. algorithm                .... NR
 SOSCF                  CNVSOSCF        .... off
 Level Shifting         CNVShift        .... off
 Zerner damping         CNVZerner       .... off
 Static damping         CNVDamp         .... off
 Fernandez-Rico         CNVRico         .... off

SCF Procedure:
 Maximum # iterations   MaxIter         ....   125
 SCF integral mode      SCFMode         .... Direct
   Integral package                     .... SHARK and LIBINT hybrid scheme
 Reset frequency        DirectResetFreq ....    20
 Integral Threshold     Thresh          ....  2.500e-11 Eh
 Primitive CutOff       TCut            ....  2.500e-12 Eh

Convergence Tolerance:
 Convergence Check Mode ConvCheckMode   .... Total+1el-Energy
 Convergence forced     ConvForced      .... 0
 Energy Change          TolE            ....  1.000e-08 Eh
 1-El. energy change                    ....  1.000e-05 Eh


Diagonalization of the overlap matrix:
Smallest eigenvalue                        ... 8.510e-06
Time for diagonalization                   ...    0.636 sec
Threshold for overlap eigenvalues          ... 1.000e-08
Number of eigenvalues below threshold      ... 0
Time for construction of square roots      ...    0.444 sec
Total time needed                          ...    1.092 sec

Time for model grid setup =    0.938 sec

------------------------------
INITIAL GUESS: MODEL POTENTIAL
------------------------------
Loading DKH relativistic densities                 ... done
Calculating cut-offs                               ... done
Initializing the effective Hamiltonian             ... done
Setting up the integral package (SHARK)            ... done
Starting the Coulomb interaction                   ... done (   1.7 sec)
Reading the grid                                   ... done
Mapping shells                                     ... done
Starting the XC term evaluation                    ... done (   0.9 sec)
  promolecular density results
     # of electrons  =    207.988392069
     EX              =   -208.642981752
     EC              =     -7.441687971
     EX+EC           =   -216.084669723
Transforming the Hamiltonian                       ... done (   0.4 sec)
Diagonalizing the Hamiltonian                      ... done (   0.7 sec)
Back transforming the eigenvectors                 ... done (   0.2 sec)
Now organizing SCF variables                       ... done
                      ------------------
                      INITIAL GUESS DONE (   4.9 sec)
                      ------------------
-------------------
DFT GRID GENERATION
-------------------

General Integration Accuracy     IntAcc      ... 4.959
Radial Grid Type                 RadialGrid  ... OptM3 with GC (2021)
Angular Grid (max. ang.)         AngularGrid ... 6 (Lebedev-590)
Angular grid pruning method      GridPruning ... 4 (adaptive)
Weight generation scheme         WeightScheme... Becke
Basis function cutoff            BFCut       ... 1.0000e-11
Integration weight cutoff        WCut        ... 1.0000e-14
Angular grids for H and He will be reduced by one unit
Partially contracted basis set               ... off
Rotationally invariant grid construction     ... off

Total number of grid points                  ...   574734
Total number of batches                      ...     9006
Average number of points per batch           ...       63
Average number of grid points per atom       ...    11729
Time for grid setup =   11.845 sec

--------------------
COSX GRID GENERATION
--------------------

GRIDX 1
-------
General Integration Accuracy     IntAcc      ... 4.020
Radial Grid Type                 RadialGrid  ... OptM3 with GC (2021)
Angular Grid (max. ang.)         AngularGrid ... 2 (Lebedev-110)
Angular grid pruning method      GridPruning ... 4 (adaptive)
Weight generation scheme         WeightScheme... Becke
Basis function cutoff            BFCut       ... 1.0000e-11
Integration weight cutoff        WCut        ... 1.0000e-14
Angular grids for H and He will be reduced by one unit
Partially contracted basis set               ... on
Rotationally invariant grid construction     ... off

Total number of grid points                  ...    62736
Total number of batches                      ...     1004
Average number of points per batch           ...       62
Average number of grid points per atom       ...     1280
UseSFitting                                  ... on

GRIDX 2
-------
General Integration Accuracy     IntAcc      ... 4.338
Radial Grid Type                 RadialGrid  ... OptM3 with GC (2021)
Angular Grid (max. ang.)         AngularGrid ... 3 (Lebedev-194)
Angular grid pruning method      GridPruning ... 4 (adaptive)
Weight generation scheme         WeightScheme... Becke
Basis function cutoff            BFCut       ... 1.0000e-11
Integration weight cutoff        WCut        ... 1.0000e-14
Angular grids for H and He will be reduced by one unit
Partially contracted basis set               ... on
Rotationally invariant grid construction     ... off

Total number of grid points                  ...   136749
Total number of batches                      ...     2162
Average number of points per batch           ...       63
Average number of grid points per atom       ...     2791
UseSFitting                                  ... on

Time for X-Grid setup             =    5.347 sec

--------------
SCF ITERATIONS
--------------
ITER       Energy         Delta-E        Max-DP      RMS-DP      [F,P]   Gradient Norm
               ***  Starting incremental Fock matrix formation  ***
                             ****Resetting KDIIS****
                             ****Turning on KDIIS(Cayley)****
  0  -2610.8039405627   0.000000000000 0.01735885  0.00018886  0.1659302   0.093385326
  1  -2611.1220746492  -0.318134086498 0.01158900  0.00016364  0.1493956   0.070670681
  2  -2611.2796690669  -0.157594417672 0.01784645  0.00022766  0.1195490   0.057087923
  3  -2611.4396962358  -0.160027168901 0.04556127  0.00037241  0.0718115   0.035231516
  4  -2611.5414232715  -0.101727035672 0.00891990  0.00007788  0.0063021   0.005854539
  5  -2611.5452896824  -0.003866410937 0.00465549  0.00006921  0.0048573   0.003058284
  6  -2611.5461797698  -0.000890087404 0.00173328  0.00002604  0.0016553   0.001662976
  7  -2611.5463995458  -0.000219775963 0.00246775  0.00001336  0.0014018   0.000934378
  8  -2611.5464035715  -0.000004025691 0.00146670  0.00000806  0.0016968   0.001145836
  9  -2611.5464870191  -0.000083447686 0.00147069  0.00000443  0.0009767   0.000388851
 10  -2611.5464987680  -0.000011748813 0.00112034  0.00000370  0.0006128   0.000227493
 11  -2611.5465049588  -0.000006190854 0.00021516  0.00000223  0.0004148   0.000126262
 12  -2611.5465054123  -0.000000453503 0.00090243  0.00000258  0.0003918   0.000144979
 13  -2611.5465080373  -0.000002625006 0.00011601  0.00000107  0.0002039   0.000083070
 14  -2611.5465082794  -0.000000242082 0.00036936  0.00000109  0.0001899   0.000082575
 15  -2611.5465087049  -0.000000425526 0.00009779  0.00000081  0.0001570   0.000101298
 16  -2611.5465089069  -0.000000201996 0.00018273  0.00000089  0.0001407   0.000064900
 17  -2611.5465092045  -0.000000297547 0.00008967  0.00000061  0.0000994   0.000026545
 18  -2611.5465092317  -0.000000027223 0.00008788  0.00000072  0.0000832   0.000027675
 19  -2611.5465093287  -0.000000096967 0.00026498  0.00000206  0.0000708   0.000017390
               *** Restarting incremental Fock matrix formation ***
                             ****Resetting KDIIS****
 20  -2611.5465071922   0.000002136477 0.00003302  0.00000033  0.0000576   0.000020056
 21  -2611.5465071738   0.000000018397 0.00020086  0.00000158  0.0000564   0.000014745
 22  -2611.5465071665   0.000000007319 0.00034919  0.00000273  0.0000533   0.000012421
 23  -2611.5465072218  -0.000000055352 0.00077696  0.00000576  0.0000433   0.000009243
 24  -2611.5465072820  -0.000000060133 0.00057432  0.00000336  0.0000149   0.000008545
 25  -2611.5465072804   0.000000001581 0.00063789  0.00000380  0.0000130   0.000005600
 26  -2611.5465072931  -0.000000012762 0.00006730  0.00000068  0.0000118   0.000002408
 27  -2611.5465073086  -0.000000015462 0.00005831  0.00000049  0.0000102   0.000002045
 28  -2611.5465073093  -0.000000000750 0.00006545  0.00000050  0.0000096   0.000001620
 29  -2611.5465073330  -0.000000023627 0.00004915  0.00000052  0.0000085   0.000001114
 30  -2611.5465073802  -0.000000047181 0.00004650  0.00000046  0.0000066   0.000001347
 31  -2611.5465073362   0.000000043911 0.00003440  0.00000030  0.0000048   0.000001811
 32  -2611.5465073114   0.000000024852 0.00004210  0.00000037  0.0000038   0.000001972
 33  -2611.5465073373  -0.000000025892 0.00002280  0.00000029  0.0000030   0.000001358
 34  -2611.5465073233   0.000000014021 0.00003687  0.00000030  0.0000022   0.000001179
 35  -2611.5465073172   0.000000006017 0.00003140  0.00000025  0.0000021   0.000001175
 36  -2611.5465072865   0.000000030788 0.00002439  0.00000024  0.0000018   0.000000942
 37  -2611.5465072725   0.000000014000 0.00001800  0.00000016  0.0000016   0.000000850
 38  -2611.5465072476   0.000000024816 0.00001406  0.00000015  0.0000015   0.000000767

 WARNING: the maximum gradient error descreased on average only by a factor   1.1
          during the last 20 iterations

                      *** Initiating the TRAH-SCF procedure ***

                    *** KDIIS BlockDiag ( 2.065 sec) ***

TRAH GRIDX
----------

General Integration Accuracy     IntAcc      ... 3.067
Radial Grid Type                 RadialGrid  ... OptM3 with GC (2021)
Angular Grid (max. ang.)         AngularGrid ... 2 (Lebedev-110)
Angular grid pruning method      GridPruning ... 4 (adaptive)
Weight generation scheme         WeightScheme... Becke
Basis function cutoff            BFCut       ... 1.0000e-11
Integration weight cutoff        WCut        ... 1.0000e-14
Angular grids for H and He will be reduced by one unit
Partially contracted basis set               ... on
Rotationally invariant grid construction     ... off

Total number of grid points                  ...    35109
Total number of batches                      ...      577
Average number of points per batch           ...       60
Average number of grid points per atom       ...      717


TRAH GRID
---------

General Integration Accuracy     IntAcc      ... 3.467
Radial Grid Type                 RadialGrid  ... OptM3 with GC (2021)
Angular Grid (max. ang.)         AngularGrid ... 3 (Lebedev-194)
Angular grid pruning method      GridPruning ... 4 (adaptive)
Weight generation scheme         WeightScheme... Becke
Basis function cutoff            BFCut       ... 1.0000e-11
Integration weight cutoff        WCut        ... 1.0000e-14
Angular grids for H and He will be reduced by one unit
Partially contracted basis set               ... off
Rotationally invariant grid construction     ... off

Total number of grid points                  ...    88109
Total number of batches                      ...     1402
Average number of points per batch           ...       62
Average number of grid points per atom       ...     1798

 --------------------------------------------------------------------------------------------
   Iter.        energy            ||Error||_2        Shift      TRadius  Mac/Mic        Rej.
 --------------------------------------------------------------------------------------------
    0      -2611.546507322115     5.460240e-05                     0.400 (TRAH MAcro)   No
    0     dE    -1.162953e-09     1.639236e-04    -1.1713e-09      0.000 (TRAH MIcro)
    0     dE    -1.662034e-09     1.197872e-05    -1.6624e-09      0.000 (TRAH MIcro)
    0     dE    -1.690252e-09     9.116142e-06    -1.6915e-09      0.000 (TRAH MIcro)
    0     dE    -1.739174e-09     8.457337e-06    -1.7392e-09      0.000 (TRAH MIcro)
    0     dE    -1.772498e-09     8.938879e-06    -1.7725e-09      0.000 (TRAH MIcro)
    0     dE    -1.782870e-09     4.204256e-06    -1.7829e-09      0.000 (TRAH MIcro)
    0     dE    -1.786898e-09     2.710455e-06    -1.7869e-09      0.000 (TRAH MIcro)
    0     dE    -1.790588e-09     4.821655e-06    -1.7906e-09      0.000 (TRAH MIcro)
    0     dE    -1.792976e-09     2.295003e-06    -1.7930e-09      0.000 (TRAH MIcro)
    0     dE    -1.793456e-09     6.253267e-07    -1.7935e-09      0.000 (TRAH MIcro)
    1      -2611.546507324942     6.479775e-07                           (NR   MAcro)

               *****************************************************
               *                     SUCCESS                       *
               *           SCF CONVERGED AFTER  51 CYCLES          *
               *****************************************************


----------------
TOTAL SCF ENERGY
----------------

Total Energy       :        -2611.54650732 Eh          -71063.79328 eV

Components:
Nuclear Repulsion  :         3003.03185472 Eh           81716.65116 eV
Electronic Energy  :        -5614.57836204 Eh         -152780.44444 eV
One Electron Energy:        -9573.02741920 Eh         -260495.31940 eV
Two Electron Energy:         3958.44905716 Eh          107714.87496 eV
Max COSX asymmetry :            0.00000044 Eh               0.00001 eV

Virial components:
Potential Energy   :        -5291.70997838 Eh         -143994.74906 eV
Kinetic Energy     :         2680.16347105 Eh           72930.95579 eV
Virial Ratio       :            1.97439822


DFT components:
N(Alpha)           :      104.999984864010 electrons
N(Beta)            :      102.999985262494 electrons
N(Total)           :      207.999970126504 electrons
E(X)               :     -167.731861962186 Eh       
E(C)               :       -8.735555545142 Eh       
E(XC)              :     -176.467417507327 Eh       
DFET-embed. en.    :        0.000000000000 Eh       

---------------
SCF CONVERGENCE
---------------

  Last Energy change         ...   -2.8272e-09  Tolerance :   1.0000e-08
  Last Orbital Gradient      ...    6.4798e-07  Tolerance :   1.0000e-05
  Last Orbital Rotation      ...    8.4867e-05

             **** THE GBW FILE WAS UPDATED (run_nisalfix_eprnmr.gbw) ****
             **** DENSITY run_nisalfix_eprnmr.scfp WAS UPDATED ****
             **** ENERGY FILE WAS UPDATED (run_nisalfix_eprnmr.en.tmp) ****
----------------------
UHF SPIN CONTAMINATION
----------------------

Warning: in a DFT calculation there is little theoretical justification to 
         calculate <S**2> as in Hartree-Fock theory. We will do it anyways
         but you should keep in mind that the values have only limited relevance

Expectation value of <S**2>     :     2.005574
Ideal value S*(S+1) for S=1.0   :     2.000000
Deviation                       :     0.005574

             **** THE GBW FILE WAS UPDATED (run_nisalfix_eprnmr.gbw) ****
             **** DENSITY run_nisalfix_eprnmr.scfp WAS UPDATED ****
----------------
ORBITAL ENERGIES
----------------
                 SPIN UP ORBITALS
  NO   OCC          E(Eh)            E(eV) 
   0   1.0000    -303.038671     -8246.1015 
   1   1.0000     -36.476927      -992.5876 
   2   1.0000     -31.331296      -852.5679 
   3   1.0000     -31.329385      -852.5159 
   4   1.0000     -31.325358      -852.4063 
   5   1.0000     -19.100040      -519.7385 
   6   1.0000     -19.097739      -519.6759 
   7   1.0000     -14.367642      -390.9634 
   8   1.0000     -14.335819      -390.0975 
   9   1.0000     -14.335649      -390.0928 
  10   1.0000     -10.229243      -278.3518 
  11   1.0000     -10.228943      -278.3437 
  12   1.0000     -10.228032      -278.3189 
  13   1.0000     -10.226443      -278.2757 
  14   1.0000     -10.223754      -278.2025 
  15   1.0000     -10.223638      -278.1993 
  16   1.0000     -10.209324      -277.8098 
  17   1.0000     -10.208428      -277.7854 
  18   1.0000     -10.197041      -277.4756 
  19   1.0000     -10.194647      -277.4105 
  20   1.0000     -10.178320      -276.9662 
  21   1.0000     -10.176766      -276.9239 
  22   1.0000     -10.176006      -276.9032 
  23   1.0000     -10.174247      -276.8553 
  24   1.0000     -10.173589      -276.8374 
  25   1.0000     -10.171864      -276.7905 
  26   1.0000     -10.162213      -276.5279 
  27   1.0000     -10.160358      -276.4774 
  28   1.0000     -10.158947      -276.4390 
  29   1.0000     -10.157025      -276.3867 
  30   1.0000      -4.188740      -113.9814 
  31   1.0000      -2.695560       -73.3499 
  32   1.0000      -2.693306       -73.2886 
  33   1.0000      -2.685180       -73.0675 
  34   1.0000      -0.994616       -27.0649 
  35   1.0000      -0.991697       -26.9854 
  36   1.0000      -0.951550       -25.8930 
  37   1.0000      -0.934920       -25.4405 
  38   1.0000      -0.930203       -25.3121 
  39   1.0000      -0.832073       -22.6419 
  40   1.0000      -0.830331       -22.5945 
  41   1.0000      -0.803337       -21.8599 
  42   1.0000      -0.778698       -21.1895 
  43   1.0000      -0.752375       -20.4732 
  44   1.0000      -0.743145       -20.2220 
  45   1.0000      -0.714023       -19.4296 
  46   1.0000      -0.711905       -19.3719 
  47   1.0000      -0.696448       -18.9513 
  48   1.0000      -0.675969       -18.3941 
  49   1.0000      -0.635069       -17.2811 
  50   1.0000      -0.633361       -17.2346 
  51   1.0000      -0.604557       -16.4508 
  52   1.0000      -0.591927       -16.1072 
  53   1.0000      -0.589717       -16.0470 
  54   1.0000      -0.588559       -16.0155 
  55   1.0000      -0.561266       -15.2728 
  56   1.0000      -0.546927       -14.8827 
  57   1.0000      -0.519744       -14.1430 
  58   1.0000      -0.510803       -13.8997 
  59   1.0000      -0.502657       -13.6780 
  60   1.0000      -0.500256       -13.6127 
  61   1.0000      -0.493758       -13.4358 
  62   1.0000      -0.482773       -13.1369 
  63   1.0000      -0.480060       -13.0631 
  64   1.0000      -0.471775       -12.8377 
  65   1.0000      -0.464708       -12.6453 
  66   1.0000      -0.450636       -12.2624 
  67   1.0000      -0.447845       -12.1865 
  68   1.0000      -0.438323       -11.9274 
  69   1.0000      -0.435337       -11.8461 
  70   1.0000      -0.431246       -11.7348 
  71   1.0000      -0.423751       -11.5309 
  72   1.0000      -0.416585       -11.3359 
  73   1.0000      -0.413485       -11.2515 
  74   1.0000      -0.408290       -11.1101 
  75   1.0000      -0.404407       -11.0045 
  76   1.0000      -0.397854       -10.8262 
  77   1.0000      -0.394501       -10.7349 
  78   1.0000      -0.385643       -10.4939 
  79   1.0000      -0.378154       -10.2901 
  80   1.0000      -0.373997       -10.1770 
  81   1.0000      -0.366214        -9.9652 
  82   1.0000      -0.362836        -9.8733 
  83   1.0000      -0.359301        -9.7771 
  84   1.0000      -0.356742        -9.7074 
  85   1.0000      -0.352774        -9.5995 
  86   1.0000      -0.349119        -9.5000 
  87   1.0000      -0.347053        -9.4438 
  88   1.0000      -0.343004        -9.3336 
  89   1.0000      -0.334892        -9.1129 
  90   1.0000      -0.324747        -8.8368 
  91   1.0000      -0.323249        -8.7961 
  92   1.0000      -0.320416        -8.7190 
  93   1.0000      -0.313341        -8.5264 
  94   1.0000      -0.308487        -8.3943 
  95   1.0000      -0.299367        -8.1462 
  96   1.0000      -0.293506        -7.9867 
  97   1.0000      -0.284544        -7.7428 
  98   1.0000      -0.253484        -6.8977 
  99   1.0000      -0.247974        -6.7477 
 100   1.0000      -0.238224        -6.4824 
 101   1.0000      -0.236783        -6.4432 
 102   1.0000      -0.201127        -5.4729 
 103   1.0000      -0.194854        -5.3023 
 104   1.0000      -0.188790        -5.1372 
 105   0.0000      -0.047565        -1.2943 
 106   0.0000      -0.045555        -1.2396 
 107   0.0000       0.012868         0.3502 
 108   0.0000       0.014636         0.3983 
 109   0.0000       0.017139         0.4664 
 110   0.0000       0.035524         0.9667 
 111   0.0000       0.038846         1.0571 
 112   0.0000       0.039269         1.0686 
 113   0.0000       0.048415         1.3174 
 114   0.0000       0.050946         1.3863 
 115   0.0000       0.057411         1.5622 
 116   0.0000       0.057908         1.5758 
 117   0.0000       0.063078         1.7164 
 118   0.0000       0.066958         1.8220 
 119   0.0000       0.068966         1.8767 
 120   0.0000       0.082141         2.2352 
 121   0.0000       0.086237         2.3466 
 122   0.0000       0.091795         2.4979 
 123   0.0000       0.092571         2.5190 
 124   0.0000       0.093544         2.5455 
 125   0.0000       0.099156         2.6982 
 126   0.0000       0.102774         2.7966 
 127   0.0000       0.109150         2.9701 
 128   0.0000       0.111330         3.0294 
 129   0.0000       0.115583         3.1452 
 130   0.0000       0.120463         3.2780 
 131   0.0000       0.125485         3.4146 
 132   0.0000       0.133986         3.6460 
 133   0.0000       0.136643         3.7182 
 134   0.0000       0.141639         3.8542 
 135   0.0000       0.150716         4.1012 
 136   0.0000       0.154917         4.2155 
 137   0.0000       0.157336         4.2813 
 138   0.0000       0.160898         4.3783 
 139   0.0000       0.162741         4.4284 
 140   0.0000       0.164725         4.4824 
 141   0.0000       0.170154         4.6301 
 142   0.0000       0.175082         4.7642 
 143   0.0000       0.181426         4.9369 
 144   0.0000       0.188865         5.1393 
 145   0.0000       0.191661         5.2153 
 146   0.0000       0.193532         5.2663 
 147   0.0000       0.199203         5.4206 
 148   0.0000       0.207890         5.6570 
 149   0.0000       0.214722         5.8429 
 150   0.0000       0.216551         5.8927 
 151   0.0000       0.220419         5.9979 
 152   0.0000       0.225951         6.1484 
 153   0.0000       0.226770         6.1707 
 154   0.0000       0.228495         6.2177 
 155   0.0000       0.229196         6.2367 
 156   0.0000       0.230538         6.2733 
 157   0.0000       0.236113         6.4250 
 158   0.0000       0.239311         6.5120 
 159   0.0000       0.240727         6.5505 
 160   0.0000       0.248491         6.7618 
 161   0.0000       0.250250         6.8097 
 162   0.0000       0.259693         7.0666 
 163   0.0000       0.262679         7.1479 
 164   0.0000       0.267462         7.2780 
 165   0.0000       0.272649         7.4191 
 166   0.0000       0.273439         7.4406 
 167   0.0000       0.277820         7.5599 
 168   0.0000       0.279071         7.5939 
 169   0.0000       0.283504         7.7145 
 170   0.0000       0.288178         7.8417 
 171   0.0000       0.288475         7.8498 
 172   0.0000       0.291873         7.9423 
 173   0.0000       0.297847         8.1048 
 174   0.0000       0.301601         8.2070 
 175   0.0000       0.304512         8.2862 
 176   0.0000       0.309537         8.4229 
 177   0.0000       0.311823         8.4851 
 178   0.0000       0.315489         8.5849 
 179   0.0000       0.320997         8.7348 
 180   0.0000       0.325464         8.8563 
 181   0.0000       0.333025         9.0621 
 182   0.0000       0.336460         9.1555 
 183   0.0000       0.340749         9.2723 
 184   0.0000       0.346848         9.4382 
 185   0.0000       0.350785         9.5453 
 186   0.0000       0.355965         9.6863 
 187   0.0000       0.358179         9.7465 
 188   0.0000       0.361675         9.8417 
 189   0.0000       0.363770         9.8987 
 190   0.0000       0.365739         9.9523 
 191   0.0000       0.372253        10.1295 
 192   0.0000       0.373926        10.1750 
 193   0.0000       0.374636        10.1944 
 194   0.0000       0.377753        10.2792 
 195   0.0000       0.382519        10.4089 
 196   0.0000       0.383513        10.4359 
 197   0.0000       0.391357        10.6494 
 198   0.0000       0.394396        10.7320 
 199   0.0000       0.396681        10.7942 
 200   0.0000       0.398758        10.8507 
 201   0.0000       0.402254        10.9459 
 202   0.0000       0.407192        11.0803 
 203   0.0000       0.409065        11.1312 
 204   0.0000       0.409986        11.1563 
 205   0.0000       0.412163        11.2155 
 206   0.0000       0.416883        11.3440 
 207   0.0000       0.422373        11.4934 
 208   0.0000       0.425788        11.5863 
 209   0.0000       0.428924        11.6716 
 210   0.0000       0.432692        11.7742 
 211   0.0000       0.433294        11.7905 
 212   0.0000       0.437264        11.8985 
 213   0.0000       0.441889        12.0244 
 214   0.0000       0.444705        12.1010 
 215   0.0000       0.446812        12.1584 
 216   0.0000       0.450052        12.2465 
 217   0.0000       0.453128        12.3303 
 218   0.0000       0.455903        12.4058 
 219   0.0000       0.458232        12.4691 
 220   0.0000       0.459246        12.4967 
 221   0.0000       0.463480        12.6119 
 222   0.0000       0.467172        12.7124 
 223   0.0000       0.469801        12.7839 
 224   0.0000       0.473586        12.8869 
 225   0.0000       0.477530        12.9942 
 226   0.0000       0.480726        13.0812 
 227   0.0000       0.484426        13.1819 
 228   0.0000       0.490625        13.3506 
 229   0.0000       0.492074        13.3900 
 230   0.0000       0.498300        13.5594 
 231   0.0000       0.501333        13.6420 
 232   0.0000       0.507602        13.8126 
 233   0.0000       0.510160        13.8821 
 234   0.0000       0.513414        13.9707 
 235   0.0000       0.519107        14.1256 
 236   0.0000       0.524741        14.2789 
 237   0.0000       0.528469        14.3804 
 238   0.0000       0.533698        14.5227 
 239   0.0000       0.537063        14.6142 
 240   0.0000       0.545958        14.8563 
 241   0.0000       0.548334        14.9209 
 242   0.0000       0.551564        15.0088 
 243   0.0000       0.554537        15.0897 
 244   0.0000       0.558560        15.1992 
 245   0.0000       0.564910        15.3720 
 246   0.0000       0.569765        15.5041 
 247   0.0000       0.572639        15.5823 
 248   0.0000       0.581237        15.8163 
 249   0.0000       0.589691        16.0463 
 250   0.0000       0.599585        16.3155 
 251   0.0000       0.602161        16.3856 
 252   0.0000       0.608973        16.5710 
 253   0.0000       0.612399        16.6642 
 254   0.0000       0.621438        16.9102 
 255   0.0000       0.623542        16.9674 
 256   0.0000       0.634447        17.2642 
 257   0.0000       0.640797        17.4370 
 258   0.0000       0.649643        17.6777 
 259   0.0000       0.652194        17.7471 
 260   0.0000       0.660219        17.9655 
 261   0.0000       0.663270        18.0485 
 262   0.0000       0.668020        18.1777 
 263   0.0000       0.675292        18.3756 
 264   0.0000       0.687151        18.6983 
 265   0.0000       0.688894        18.7458 
 266   0.0000       0.692213        18.8361 
 267   0.0000       0.695174        18.9167 
 268   0.0000       0.698748        19.0139 
 269   0.0000       0.702052        19.1038 
 270   0.0000       0.707349        19.2479 
 271   0.0000       0.716567        19.4988 
 272   0.0000       0.719542        19.5797 
 273   0.0000       0.721394        19.6301 
 274   0.0000       0.726568        19.7709 
 275   0.0000       0.727022        19.7833 
 276   0.0000       0.735274        20.0078 
 277   0.0000       0.740256        20.1434 
 278   0.0000       0.742682        20.2094 
 279   0.0000       0.749492        20.3947 
 280   0.0000       0.755618        20.5614 
 281   0.0000       0.758437        20.6381 
 282   0.0000       0.764628        20.8066 
 283   0.0000       0.772546        21.0220 
 284   0.0000       0.774418        21.0730 
 285   0.0000       0.775922        21.1139 
 286   0.0000       0.788251        21.4494 
 287   0.0000       0.789074        21.4718 
 288   0.0000       0.797327        21.6964 
 289   0.0000       0.805922        21.9303 
 290   0.0000       0.815857        22.2006 
 291   0.0000       0.820995        22.3404 
 292   0.0000       0.831680        22.6312 
 293   0.0000       0.838253        22.8100 
 294   0.0000       0.843209        22.9449 
 295   0.0000       0.845690        23.0124 
 296   0.0000       0.849338        23.1117 
 297   0.0000       0.855205        23.2713 
 298   0.0000       0.856779        23.3141 
 299   0.0000       0.861620        23.4459 
 300   0.0000       0.862098        23.4589 
[...]

CP-SCF GRID
-----------

General Integration Accuracy     IntAcc      ... 3.467
Radial Grid Type                 RadialGrid  ... OptM3 with GC (2021)
Angular Grid (max. ang.)         AngularGrid ... 3 (Lebedev-194)
Angular grid pruning method      GridPruning ... 4 (adaptive)
Weight generation scheme         WeightScheme... Becke
Basis function cutoff            BFCut       ... 1.0000e-11
Integration weight cutoff        WCut        ... 1.0000e-14
Angular grids for H and He will be reduced by one unit
Partially contracted basis set               ... off
Rotationally invariant grid construction     ... off

Total number of grid points                  ...    88109
Total number of batches                      ...     1402
Average number of points per batch           ...       62
Average number of grid points per atom       ...     1798

CP-SCF GRIDX
------------

General Integration Accuracy     IntAcc      ... 3.067
Radial Grid Type                 RadialGrid  ... OptM3 with GC (2021)
Angular Grid (max. ang.)         AngularGrid ... 2 (Lebedev-110)
Angular grid pruning method      GridPruning ... 4 (adaptive)
Weight generation scheme         WeightScheme... Becke
Basis function cutoff            BFCut       ... 1.0000e-11
Integration weight cutoff        WCut        ... 1.0000e-14
Angular grids for H and He will be reduced by one unit
Partially contracted basis set               ... on
Rotationally invariant grid construction     ... off

Total number of grid points                  ...    35109
Total number of batches                      ...      577
Average number of points per batch           ...       60
Average number of grid points per atom       ...      717

Memory available               ... 19496.2 MB
Memory needed per perturbation ... 112.0 MB
Perturbations treated per batch... 3
Number of batches              ... 1
     CP-SCF ITERATION   0:   4.2873e-02 (  46.9 sec   0/  3 done)
     CP-SCF ITERATION   1:   1.0483e-02 (  47.7 sec   0/  3 done)
     CP-SCF ITERATION   2:   2.8605e-03 (  47.5 sec   0/  3 done)
     CP-SCF ITERATION   3:   9.4542e-04 (  48.1 sec   0/  3 done)
     CP-SCF ITERATION   4:   3.3973e-04 (  48.1 sec   0/  3 done)
     CP-SCF ITERATION   5:   9.0301e-05 (  48.3 sec   0/  3 done)
     CP-SCF ITERATION   6:   3.6247e-05 (  48.2 sec   0/  3 done)
     CP-SCF ITERATION   7:   5.1352e-06 (  48.5 sec   0/  3 done)
     CP-SCF ITERATION   8:   1.6924e-06 (  48.4 sec   3/  3 done)
                    *** THE CP-SCF HAS CONVERGED ***

Forming final perturbed densities           ... done
Transforming perturbed density to AO basis  ... done
Storing perturbed density matrix            ... (run_nisalfix_eprnmr.pbscf_0) done
Storing perturbed density matrix            ... (run_nisalfix_eprnmr.pbscf_1) done
Storing perturbed density matrix            ... (run_nisalfix_eprnmr.pbscf_2) done

 Raw HFC matrix (all values in MHz): 
 -----------------------------------
                 1.0493              -2.3799               1.2993
                -2.3081              -0.0948              -1.0398
                 1.3209              -1.0874              -1.4690

 A(FC)          -0.1677              -0.1677              -0.1677
 A(SD)          -1.6488              -1.7658               3.4146
 A(ORB+DIA)     -0.1132              -0.1178               0.2199    A(PC) =  -0.0037
 A(ORB)         -0.1127              -0.1173               0.2186    A(PC) =  -0.0038
 A(DIA)         -0.0005              -0.0005               0.0013    A(PC) =   0.0001
             ----------           ----------           ----------
 A(Tot)         -1.9298              -2.0514               3.4668    A(iso)=   -0.1715
 Orientation: 
  X           0.6596341           -0.1061711            0.7440501
  Y           0.7215216            0.3666543           -0.5873425
  Z          -0.2104504            0.9242793            0.3184625

Notes:  (1) The A matrix conforms to the "SAI" spin Hamiltonian convention.
        (2) Tensor is right-handed.

 -----------------------------------------------------------
 Nucleus  47H : A:ISTP=    1 I=  0.5 P=533.5514 MHz/au**3
                Q:ISTP=    2 I=  1.0 Q=  0.0029 barn     
 -----------------------------------------------------------
 Solving for nuclear perturbation:
Forming RHS of the CP-SCF equations         ... 
Calc. nucleus orbit integrals (SHARK)       ... done

------------------------------------------------------------------------------
                           ORCA CP-SCF CALCULATION
------------------------------------------------------------------------------

Input orbitals are from        ... run_nisalfix_eprnmr.gbw
Input Perturbation             ... run_nisalfix_eprnmr.pin.tmp
Wavefunction output            ... run_nisalfix_eprnmr.pout.tmp
Perturbation mode              ... Imaginary perturbation
Solver                         ... POPLE
Max. number of iterations      ... 200
Convergence tolerance          ... 3.000e-06
Integral handling              ... Direct
DFT GridXC                     ... 3
COSX GridX                     ... 2
COSX IntAccX                   ... 3.067
COSX Algorithm                 ... Auto
Number of perturbations        ... 3
Number of operators            ... 2
Orbital ranges used for CP-SCF:
 Operator 0:  Orbitals   0...104  to 105...992
 Operator 1:  Orbitals   0...102  to 103...992
Variables per perturbation     ... 184910
DFT calculation                         ... on
XC functional terms                     ... off
Hybrid DFT                              ... on
   Exchange mixing (SCF)                ...  0.200
   Exchange mixing (CP-SCF)             ...  0.200
   GGA exch. scaling(SCF)               ...  0.720
   GGA exch. scaling (CP-SCF)           ...  0.720
   GGA corr. scaling (SCF)              ...  0.810
   GGA corr. scaling (CP-SCF)           ...  0.810

CP-SCF GRID
-----------

General Integration Accuracy     IntAcc      ... 3.467
Radial Grid Type                 RadialGrid  ... OptM3 with GC (2021)
Angular Grid (max. ang.)         AngularGrid ... 3 (Lebedev-194)
Angular grid pruning method      GridPruning ... 4 (adaptive)
Weight generation scheme         WeightScheme... Becke
Basis function cutoff            BFCut       ... 1.0000e-11
Integration weight cutoff        WCut        ... 1.0000e-14
Angular grids for H and He will be reduced by one unit
Partially contracted basis set               ... off
Rotationally invariant grid construction     ... off

Total number of grid points                  ...    88109
Total number of batches                      ...     1402
Average number of points per batch           ...       62
Average number of grid points per atom       ...     1798

CP-SCF GRIDX
------------

General Integration Accuracy     IntAcc      ... 3.067
Radial Grid Type                 RadialGrid  ... OptM3 with GC (2021)
Angular Grid (max. ang.)         AngularGrid ... 2 (Lebedev-110)
Angular grid pruning method      GridPruning ... 4 (adaptive)
Weight generation scheme         WeightScheme... Becke
Basis function cutoff            BFCut       ... 1.0000e-11
Integration weight cutoff        WCut        ... 1.0000e-14
Angular grids for H and He will be reduced by one unit
Partially contracted basis set               ... on
Rotationally invariant grid construction     ... off

Total number of grid points                  ...    35109
Total number of batches                      ...      577
Average number of points per batch           ...       60
Average number of grid points per atom       ...      717

Memory available               ... 19487.2 MB
Memory needed per perturbation ... 112.0 MB
Perturbations treated per batch... 3
Number of batches              ... 1
     CP-SCF ITERATION   0:   3.9983e-02 (  46.8 sec   0/  3 done)
     CP-SCF ITERATION   1:   5.0505e-03 (  48.0 sec   0/  3 done)
     CP-SCF ITERATION   2:   2.0803e-03 (  47.7 sec   0/  3 done)
     CP-SCF ITERATION   3:   5.2875e-04 (  48.1 sec   0/  3 done)
     CP-SCF ITERATION   4:   2.0154e-04 (  48.1 sec   0/  3 done)
     CP-SCF ITERATION   5:   5.0052e-05 (  48.2 sec   0/  3 done)
     CP-SCF ITERATION   6:   2.4074e-05 (  48.1 sec   0/  3 done)
     CP-SCF ITERATION   7:   4.0241e-06 (  48.1 sec   1/  3 done)
     CP-SCF ITERATION   8:   1.6214e-06 (  35.4 sec   3/  3 done)
                    *** THE CP-SCF HAS CONVERGED ***

Forming final perturbed densities           ... done
Transforming perturbed density to AO basis  ... done
Storing perturbed density matrix            ... (run_nisalfix_eprnmr.pbscf_0) done
Storing perturbed density matrix            ... (run_nisalfix_eprnmr.pbscf_1) done
Storing perturbed density matrix            ... (run_nisalfix_eprnmr.pbscf_2) done

 Raw HFC matrix (all values in MHz): 
 -----------------------------------
                -0.1755              -0.7945               1.2005
                -0.7591              -0.5297              -0.8837
                 1.1952              -0.9189               0.1176

 A(FC)          -0.2016              -0.2016              -0.2016
 A(SD)          -0.8774              -0.9849               1.8623
 A(ORB+DIA)     -0.0596              -0.0509               0.1277    A(PC) =   0.0057
 A(ORB)         -0.0593              -0.0506               0.1270    A(PC) =   0.0057
 A(DIA)         -0.0003              -0.0002               0.0007    A(PC) =   0.0001
             ----------           ----------           ----------
 A(Tot)         -1.1386              -1.2374               1.7884    A(iso)=   -0.1959
 Orientation: 
  X           0.4448770           -0.6724517            0.5915177
  Y           0.8724470            0.1762189           -0.4558324
  Z           0.2022887            0.7188572            0.6650742

Notes:  (1) The A matrix conforms to the "SAI" spin Hamiltonian convention.
        (2) Tensor is right-handed.

 -----------------------------------------------------------
 Nucleus  48H : A:ISTP=    1 I=  0.5 P=533.5514 MHz/au**3
                Q:ISTP=    2 I=  1.0 Q=  0.0029 barn     
 -----------------------------------------------------------
 Solving for nuclear perturbation:
Forming RHS of the CP-SCF equations         ... 
Calc. nucleus orbit integrals (SHARK)       ... done

------------------------------------------------------------------------------
                           ORCA CP-SCF CALCULATION
------------------------------------------------------------------------------

Input orbitals are from        ... run_nisalfix_eprnmr.gbw
Input Perturbation             ... run_nisalfix_eprnmr.pin.tmp
Wavefunction output            ... run_nisalfix_eprnmr.pout.tmp
Perturbation mode              ... Imaginary perturbation
Solver                         ... POPLE
Max. number of iterations      ... 200
Convergence tolerance          ... 3.000e-06
Integral handling              ... Direct
DFT GridXC                     ... 3
COSX GridX                     ... 2
COSX IntAccX                   ... 3.067
COSX Algorithm                 ... Auto
Number of perturbations        ... 3
Number of operators            ... 2
Orbital ranges used for CP-SCF:
 Operator 0:  Orbitals   0...104  to 105...992
 Operator 1:  Orbitals   0...102  to 103...992
Variables per perturbation     ... 184910
DFT calculation                         ... on
XC functional terms                     ... off
Hybrid DFT                              ... on
   Exchange mixing (SCF)                ...  0.200
   Exchange mixing (CP-SCF)             ...  0.200
   GGA exch. scaling(SCF)               ...  0.720
   GGA exch. scaling (CP-SCF)           ...  0.720
   GGA corr. scaling (SCF)              ...  0.810
   GGA corr. scaling (CP-SCF)           ...  0.810

CP-SCF GRID
-----------

General Integration Accuracy     IntAcc      ... 3.467
Radial Grid Type                 RadialGrid  ... OptM3 with GC (2021)
Angular Grid (max. ang.)         AngularGrid ... 3 (Lebedev-194)
Angular grid pruning method      GridPruning ... 4 (adaptive)
Weight generation scheme         WeightScheme... Becke
Basis function cutoff            BFCut       ... 1.0000e-11
Integration weight cutoff        WCut        ... 1.0000e-14
Angular grids for H and He will be reduced by one unit
Partially contracted basis set               ... off
Rotationally invariant grid construction     ... off

Total number of grid points                  ...    88109
Total number of batches                      ...     1402
Average number of points per batch           ...       62
Average number of grid points per atom       ...     1798

CP-SCF GRIDX
------------

General Integration Accuracy     IntAcc      ... 3.067
Radial Grid Type                 RadialGrid  ... OptM3 with GC (2021)
Angular Grid (max. ang.)         AngularGrid ... 2 (Lebedev-110)
Angular grid pruning method      GridPruning ... 4 (adaptive)
Weight generation scheme         WeightScheme... Becke
Basis function cutoff            BFCut       ... 1.0000e-11
Integration weight cutoff        WCut        ... 1.0000e-14
Angular grids for H and He will be reduced by one unit
Partially contracted basis set               ... on
Rotationally invariant grid construction     ... off

Total number of grid points                  ...    35109
Total number of batches                      ...      577
Average number of points per batch           ...       60
Average number of grid points per atom       ...      717

Memory available               ... 19478.2 MB
Memory needed per perturbation ... 112.0 MB
Perturbations treated per batch... 3
Number of batches              ... 1
     CP-SCF ITERATION   0:   6.7603e-02 (  47.1 sec   0/  3 done)
     CP-SCF ITERATION   1:   1.8973e-02 (  47.4 sec   0/  3 done)
     CP-SCF ITERATION   2:   4.4573e-03 (  47.6 sec   0/  3 done)
     CP-SCF ITERATION   3:   1.7643e-03 (  47.9 sec   0/  3 done)
     CP-SCF ITERATION   4:   4.8867e-04 (  47.6 sec   0/  3 done)
     CP-SCF ITERATION   5:   1.9351e-04 (  47.8 sec   0/  3 done)
     CP-SCF ITERATION   6:   5.6770e-05 (  47.9 sec   0/  3 done)
     CP-SCF ITERATION   7:   1.2405e-05 (  48.3 sec   0/  3 done)
     CP-SCF ITERATION   8:   4.5868e-06 (  48.3 sec   1/  3 done)
     CP-SCF ITERATION   9:   6.1989e-07 (  35.6 sec   3/  3 done)
                    *** THE CP-SCF HAS CONVERGED ***

Forming final perturbed densities           ... done
Transforming perturbed density to AO basis  ... done
Storing perturbed density matrix            ... (run_nisalfix_eprnmr.pbscf_0) done
Storing perturbed density matrix            ... (run_nisalfix_eprnmr.pbscf_1) done
Storing perturbed density matrix            ... (run_nisalfix_eprnmr.pbscf_2) done

 Raw HFC matrix (all values in MHz): 
 -----------------------------------
                -8.1389              -3.8176              -1.8417
                -3.8394               5.0207               1.1739
                -1.8342               1.1703              -7.7666

 A(FC)          -3.5429              -3.5429              -3.5429
 A(SD)           9.3840              -3.1528              -6.2313
 A(ORB+DIA)      0.3993              -0.2847              -0.3706    A(PC) =  -0.0853
 A(ORB)          0.3963              -0.2833              -0.3692    A(PC) =  -0.0854
 A(DIA)          0.0031              -0.0014              -0.0015    A(PC) =   0.0001
             ----------           ----------           ----------
 A(Tot)          6.2404              -6.9804             -10.1448    A(iso)=   -3.6282
 Orientation: 
  X           0.2681510            0.5093579            0.8177099
  Y          -0.9566249            0.2411004            0.1635219
  Z          -0.1138590           -0.8260902            0.5519158

Notes:  (1) The A matrix conforms to the "SAI" spin Hamiltonian convention.
        (2) Tensor is right-handed.


--------------------------------------------------------------------------------
----------------------------------------------------------------------------
                           ORCA EULER ANGLE PROGRAM
----------------------------------------------------------------------------

ZFS < 0.3 cm**-1               -->  using g-tensor as reference tensor

Reference tensor               ...  g

g-tensor ordering              ...  |g_min> --> |gx>
                                    |g_mid> --> |gy>
                                    |g_max> --> |gz>

A- and EFG-tensor ordering     ...  the axes |Ax>, |Qx>, |Ay>, etc. are assigned
                                    such that the Euler rotation is minimal. You
                                    can find the respective eigenvalues as Ax,
                                    EFGx, Ay, etc. in the tables below.
                                    The relation of |Ax>, |Ay>,  etc. to Amin, Amid, etc.
                                    (as printed in the ORCA EPR/NMR CALCULATION Output)
                                    is obtained in the detailed printout.

Euler rotation around          ...  z - y - z
   First rotation              -->  by alpha around z
   Second rotation             -->  by beta around y'
   Third rotation              -->  by gamma around z''
   Positive / Negative angle   -->  clockwise / counterclockwise rotation

Plot EFG-tensors                    (-)
Plot HFC-tensors                    (-)
Detailed Printout                   (-)

-------------------------------------------------------------------------
          Euler rotation of hyperfine tensor to g-tensor
-------------------------------------------------------------------------

-------------------------------------------------------------------
 Atom  |   Alpha    Beta    Gamma   |   Ax       Ay       Az 
       |          [degrees]         |           [MHz]         
-------------------------------------------------------------------
 18H       68.8     28.3    -45.4      -1.24     1.61    -1.07
 19H      156.6      3.2   -133.7       0.02     1.00     0.08
 20H      -86.8     18.4    110.3      -0.35     0.51    -0.44
 21H      -99.0     34.0    125.1      -0.44     1.18    -0.38
 22H       98.7     36.0    -72.3       4.27     4.55     8.16
 23H      -69.5     24.6     79.4      -2.07    -1.71     6.37
 24H      -31.6     11.1      1.6       1.16     1.27     5.30
 25H      -98.3     23.4    101.6      -1.79    -1.39     6.19
 26H     -152.7      9.7   -168.4       0.81     0.94     5.01
 27H       93.0     26.2   -106.3      -1.22     1.68    -1.06
 28H       14.1      7.2    -27.7       0.03     1.02     0.09
 29H      -80.2     18.3     66.7      -0.30     0.54    -0.34
 30H      -67.0     37.4     50.3      -0.46     1.15    -0.40
 31H       73.9     36.5    -90.7       4.38     4.65     8.27
 40H       -5.8     41.6     24.6      -1.05    -1.12     1.84
 41H      161.2     45.8   -163.9       2.77    -1.64    -1.45
 42H       41.0     32.3    -78.9      -1.34     6.99    -1.82
 43H     -115.1     45.1    131.3       6.76     2.60     2.78
 44H       49.7     35.3    -39.1       6.64     2.48     2.70
 45H       50.4     49.9    -21.2       6.34    -2.04    -1.56
 46H     -128.6     50.5    151.1      -1.93    -2.05     3.47
 47H     -178.3     38.8    179.9      -1.14    -1.24     1.79
 48H     -117.8      8.2     93.3       6.24    -6.98   -10.14
-------------------------------------------------------------------


Maximum memory used throughout the entire EPRNMR-calculation: 1416.3 MB

Timings for individual modules:

Sum of individual times         ...    69377.653 sec (=1156.294 min)
GTO integral calculation        ...        5.863 sec (=   0.098 min)   0.0 %
Relativistic integrals          ...       32.740 sec (=   0.546 min)   0.0 %
Spin-Orbit-Coupling Matrices    ...      899.914 sec (=  14.999 min)   1.3 %
SCF iterations                  ...     3543.668 sec (=  59.061 min)   5.1 %
EPR/NMR calculation             ...    64895.468 sec (=1081.591 min)  93.5 %
                             ****ORCA TERMINATED NORMALLY****
TOTAL RUN TIME: 0 days 19 hours 16 minutes 22 seconds 153 msec
